4
 energy: -5.206771940056 gnorm: 0.000501606538 xtb: 6.4.1 (afa7bdf)
H         0.00000000001231    0.00000000001502   -0.14656183182881
C        -0.00000000003111   -0.00000000003795    0.90319255640978
C         0.00000000002528    0.00000000003084    2.09680774777811
H        -0.00000000000648   -0.00000000000790    3.14656152764093
