4
 energy: -5.080601502055 gnorm: 1.071069022075 xtb: 6.4.1 (afa7bdf)
H         0.00000000000000    0.00000000000000    0.00000000000000
C         0.00000000000000    0.00000000000000    1.00000000000000
C         0.00000000000000    0.00000000000000    2.00000000000000
H         0.00000000000000    0.00000000000000    3.00000000000000
4
 energy: -5.196316552861 gnorm: 0.216969005944 xtb: 6.4.1 (afa7bdf)
H        -0.00000000000000   -0.00000000000000   -0.09961347167343
C         0.00000000000000    0.00000000000000    0.88278639556655
C         0.00000000000000   -0.00000000000000    2.11721360447090
H        -0.00000000000000    0.00000000000000    3.09961347163598
4
 energy: -5.205940234957 gnorm: 0.066240519534 xtb: 6.4.1 (afa7bdf)
H        -0.00000000000000   -0.00000000000000   -0.14616039791799
C         0.00000000000000    0.00000000000000    0.89381178140335
C         0.00000000000000    0.00000000000000    2.10618821507328
H         0.00000000000000    0.00000000000000    3.14616040144137
4
 energy: -5.206722575157 gnorm: 0.014364690754 xtb: 6.4.1 (afa7bdf)
H        -0.00000000000000    0.00000000000000   -0.14958557109348
C         0.00000000000001   -0.00000000000001    0.90072040129686
C        -0.00000000000001    0.00000000000001    2.09927947776516
H         0.00000000000000   -0.00000000000000    3.14958569203146
4
 energy: -5.206769412572 gnorm: 0.001336803883 xtb: 6.4.1 (afa7bdf)
H         0.00000000001746    0.00000000002130   -0.14804029276927
C        -0.00000000005240   -0.00000000006393    0.90292933656323
C         0.00000000005240    0.00000000006393    2.09707064081781
H        -0.00000000001746   -0.00000000002130    3.14804031538823
4
 energy: -5.206771939731 gnorm: 0.000501592639 xtb: 6.4.1 (afa7bdf)
H         0.00000000001231    0.00000000001502   -0.14656183182881
C        -0.00000000003111   -0.00000000003795    0.90319255640978
C         0.00000000002528    0.00000000003084    2.09680774777811
H        -0.00000000000648   -0.00000000000790    3.14656152764093
